! AWR Design Environment (17442) Mon Jun 23 16:37:15 2025
! Document = '0_S2P_transistor'
! nPorts: 2, nXvals: 200

# GHz S DB R 50
!Freq DBS11 AngS11 DBS21 AngS21 DBS12 AngS12 DBS22 AngS22 
0.1 -0.0014743282 -1.6387585 16.734405 178.87051 -49.991709 88.763347 -5.6179227 -1.6818057 
0.2 -0.0038113561 -3.2777604 16.736036 177.75003 -43.972857 87.867206 -5.6130504 -3.3607494 
0.3 -0.0076600581 -4.9150004 16.730505 176.62902 -40.457181 86.90019 -5.6149313 -5.0386564 
0.4 -0.013010638 -6.5498952 16.721722 175.50942 -37.967413 85.916944 -5.6188426 -6.7142464 
0.5 -0.019849671 -8.1817304 16.710182 174.39206 -36.040876 84.928869 -5.6241949 -8.3866139 
0.6 -0.028159655 -9.8097788 16.696021 173.2776 -34.471501 83.940145 -5.6308292 -10.054923 
0.7 -0.037919821 -11.433318 16.679307 172.16664 -33.149362 82.952887 -5.6386787 -11.718369 
0.8 -0.04910549 -13.051637 16.660083 171.05975 -32.008829 81.968421 -5.6477023 -13.376167 
0.9 -0.061689552 -14.66404 16.638394 169.95747 -31.007558 80.987719 -5.6578641 -15.027555 
1 -0.075640818 -16.269847 16.614279 168.86035 -30.116623 80.011565 -5.6691343 -16.671791 
1.1 -0.090926086 -17.8684 16.587784 167.7689 -29.315374 79.04063 -5.6814786 -18.308152 
1.2 -0.10750884 -19.459057 16.558953 166.6836 -28.588556 78.075512 -5.6948651 -19.935944 
1.3 -0.12534997 -21.041204 16.527835 165.60492 -27.924564 77.116758 -5.7092582 -21.554491 
1.4 -0.14440881 -22.614247 16.494483 164.53332 -27.314369 76.164868 -5.7246213 -23.163149 
1.5 -0.16464226 -24.177617 16.458949 163.46922 -26.750797 75.22031 -5.7409168 -24.761297 
1.6 -0.18600495 -25.730773 16.421291 162.41302 -26.228052 74.283516 -5.7581056 -26.348344 
1.7 -0.2084509 -27.273199 16.381567 161.36511 -25.741383 73.354889 -5.7761469 -27.923728 
1.8 -0.23193218 -28.804405 16.339836 160.32585 -25.28684 72.434804 -5.794999 -29.486914 
1.9 -0.25640005 -30.323932 16.296161 159.29556 -24.861104 71.523608 -5.8146203 -31.037402 
2 -0.28180485 -31.831345 16.250604 158.27455 -24.461358 70.621619 -5.8349684 -32.574717 
2.1 -0.30809621 -33.32624 16.20323 157.26312 -24.085183 69.729129 -5.8559989 -34.098418 
2.2 -0.33522328 -34.80824 16.154105 156.26151 -23.730493 68.846407 -5.8776698 -35.608095 
2.3 -0.36313558 -36.276995 16.103294 155.26996 -23.395467 67.973694 -5.8999363 -37.103364 
2.4 -0.3917823 -37.732185 16.050862 154.28869 -23.078509 67.111206 -5.9227562 -38.583877 
2.5 -0.42111257 -39.173514 15.996876 153.31789 -22.778212 66.259138 -5.9460864 -40.049314 
2.6 -0.45107617 -40.600716 15.941403 152.35771 -22.493325 65.417658 -5.9698839 -41.499382 
2.7 -0.48162379 -42.01355 15.884509 151.40831 -22.222732 64.586915 -5.9941073 -42.93382 
2.8 -0.51270613 -43.4118 15.826258 150.46981 -21.965431 63.767033 -6.0187152 -44.352392 
2.9 -0.54427541 -44.795275 15.766717 149.5423 -21.720521 62.958116 -6.0436672 -45.754893 
3 -0.57628431 -46.16381 15.705949 148.62588 -21.487186 62.160249 -6.0689241 -47.14114 
3.1 -0.60868685 -47.517261 15.644017 147.7206 -21.264684 61.373497 -6.0944481 -48.510981 
3.2 -0.64143814 -48.855508 15.580985 146.82652 -21.05234 60.597906 -6.1202014 -49.864285 
3.3 -0.67449483 -50.17845 15.516912 145.94364 -20.849536 59.833506 -6.1461483 -51.200945 
3.4 -0.70781436 -51.48601 15.45186 145.072 -20.655706 59.080309 -6.1722547 -52.52088 
3.5 -0.74135646 -52.778128 15.385887 144.21159 -20.470327 58.338313 -6.198486 -53.824025 
3.6 -0.77508116 -54.054765 15.31905 143.36238 -20.292919 57.607499 -6.2248113 -55.110343 
3.7 -0.80895105 -55.315897 15.251406 142.52434 -20.123038 56.887836 -6.2511995 -56.37981 
3.8 -0.84292943 -56.56152 15.183008 141.69744 -19.960271 56.17928 -6.277621 -57.632423 
3.9 -0.87698196 -57.791642 15.113909 140.88161 -19.804235 55.481776 -6.3040485 -58.868199 
4 -0.91107508 -59.00629 15.04416 140.07678 -19.654575 54.795256 -6.3304553 -60.087168 
4.1 -0.94517735 -60.205501 14.973812 139.28288 -19.51096 54.119643 -6.3568167 -61.289379 
4.2 -0.97925856 -61.389328 14.902911 138.49983 -19.373078 53.454851 -6.3831083 -62.474892 
4.3 -1.0132903 -62.557836 14.831505 137.72752 -19.240642 52.800783 -6.4093082 -63.643784 
4.4 -1.0472455 -63.711097 14.759638 136.96585 -19.113379 52.157339 -6.4353956 -64.796139 
4.5 -1.0810985 -64.8492 14.687354 136.21472 -18.991035 51.524407 -6.4613507 -65.932061 
4.6 -1.1148255 -65.972242 14.614692 135.474 -18.873371 50.901871 -6.4871551 -67.051661 
4.7 -1.148404 -67.080327 14.541694 134.74358 -18.760164 50.289609 -6.5127916 -68.155057 
4.8 -1.1818125 -68.173565 14.468397 134.02333 -18.651202 49.687495 -6.5382449 -69.242381 
4.9 -1.2150317 -69.252079 14.394839 133.31311 -18.546286 49.095397 -6.5634996 -70.313768 
5 -1.2480431 -70.315997 14.321053 132.61279 -18.445229 48.513177 -6.5885424 -71.36937 
5.1 -1.2808292 -71.365453 14.247075 131.92223 -18.347853 47.940701 -6.6133609 -72.409336 
5.2 -1.3133746 -72.400584 14.172935 131.24129 -18.253993 47.377826 -6.6379436 -73.433824 
5.3 -1.3456645 -73.421535 14.098665 130.56983 -18.163489 46.824407 -6.6622805 -74.443001 
5.4 -1.3776852 -74.428458 14.024294 129.9077 -18.076192 46.280298 -6.6863614 -75.437038 
5.5 -1.4094248 -75.421503 13.94985 129.25476 -17.991961 45.745352 -6.7101783 -76.416107 
5.6 -1.4408715 -76.400826 13.875359 128.61085 -17.910663 45.219422 -6.7337239 -77.380388 
5.7 -1.4720155 -77.366589 13.800846 127.97582 -17.832169 44.702358 -6.7569909 -78.330061 
5.8 -1.5028472 -78.318953 13.726336 127.34954 -17.75636 44.194009 -6.7799735 -79.265315 
5.9 -1.5333584 -79.258084 13.651851 126.73183 -17.683121 43.694225 -6.8026664 -80.186333 
6 -1.5635418 -80.184144 13.577414 126.12257 -17.612345 43.202859 -6.8250653 -81.093303 
6.1 -1.5933905 -81.097306 13.503044 125.52159 -17.543927 42.719759 -6.8471657 -81.986418 
6.2 -1.6228988 -81.997738 13.428761 124.92876 -17.47777 42.244776 -6.8689654 -82.865875 
6.3 -1.6520619 -82.88561 13.354583 124.34391 -17.413781 41.777763 -6.8904608 -83.731858 
6.4 -1.680875 -83.76109 13.280528 123.76691 -17.351871 41.318573 -6.9116505 -84.584565 
6.5 -1.7093347 -84.62435 13.206613 123.1976 -17.291956 40.86706 -6.9325329 -85.424189 
6.6 -1.737438 -85.475566 13.132852 122.63585 -17.233956 40.423078 -6.9531061 -86.250924 
6.7 -1.7651825 -86.314905 13.05926 122.08151 -17.177794 39.986485 -6.9733705 -87.064965 
6.8 -1.7925663 -87.142537 12.985852 121.53444 -17.123397 39.557139 -6.9933255 -87.866501 
6.9 -1.819588 -87.958633 12.912639 120.9945 -17.070696 39.134901 -7.0129716 -88.65573 
7 -1.846247 -88.763366 12.839634 120.46155 -17.019625 38.719631 -7.0323088 -89.432839 
7.1 -1.8725426 -89.556901 12.766849 119.93545 -16.97012 38.311193 -7.0513386 -90.198024 
7.2 -1.898475 -90.339407 12.694294 119.41608 -16.922122 37.909454 -7.0700619 -90.951467 
7.3 -1.9240447 -91.111051 12.62198 118.9033 -16.875572 37.514281 -7.0884801 -91.693359 
7.4 -1.9492527 -91.872 12.549915 118.39697 -16.830416 37.125542 -7.106595 -92.423886 
7.5 -1.9740999 -92.622416 12.478108 117.89698 -16.786601 36.74311 -7.124409 -93.143235 
7.6 -1.9985879 -93.362462 12.406568 117.40319 -16.744077 36.366859 -7.1419239 -93.851586 
7.7 -2.0227185 -94.0923 12.335301 116.91548 -16.702795 35.996665 -7.1591424 -94.549121 
7.8 -2.0464937 -94.812091 12.264316 116.43373 -16.662711 35.632405 -7.1760668 -95.236018 
7.9 -2.0699161 -95.521993 12.193619 115.95781 -16.62378 35.273959 -7.1926999 -95.912455 
8 -2.0929877 -96.222158 12.123215 115.48763 -16.585961 34.921211 -7.2090452 -96.578607 
8.1 -2.1157117 -96.912744 12.05311 115.02305 -16.549212 34.574046 -7.2251052 -97.234646 
8.2 -2.138091 -97.593905 11.98331 114.56396 -16.513496 34.232348 -7.2408829 -97.880743 
8.3 -2.1601287 -98.265789 11.913818 114.11025 -16.478776 33.896008 -7.2563821 -98.517067 
8.4 -2.181828 -98.928546 11.844641 113.66182 -16.445016 33.564917 -7.2716057 -99.143781 
8.5 -2.2031923 -99.582321 11.77578 113.21856 -16.412183 33.238968 -7.2865576 -99.761051 
8.6 -2.2242253 -100.22726 11.70724 112.78036 -16.380244 32.918056 -7.3012407 -100.36904 
8.7 -2.2449304 -100.86351 11.639025 112.34713 -16.349169 32.60208 -7.3156593 -100.9679 
8.8 -2.2653116 -101.49121 11.571137 111.91876 -16.318927 32.29094 -7.3298165 -101.5578 
8.9 -2.2853728 -102.11049 11.503578 111.49515 -16.28949 31.984535 -7.3437158 -102.13887 
9 -2.3051176 -102.7215 11.436352 111.07621 -16.26083 31.682771 -7.3573612 -102.71129 
9.1 -2.3245503 -103.32437 11.369459 110.66184 -16.232921 31.385554 -7.3707565 -103.27519 
9.2 -2.3436748 -103.91923 11.302902 110.25196 -16.205738 31.092791 -7.3839052 -103.83073 
9.3 -2.3624952 -104.50622 11.236683 109.84646 -16.179257 30.804393 -7.396811 -104.37804 
9.4 -2.3810156 -105.08545 11.170803 109.44528 -16.153455 30.52027 -7.4094777 -104.91728 
9.5 -2.3992402 -105.65706 11.105262 109.04831 -16.128308 30.240337 -7.421909 -105.44857 
9.6 -2.4171732 -106.22118 11.040062 108.65547 -16.103796 29.964511 -7.4341086 -105.97206 
9.7 -2.4348189 -106.77792 10.975204 108.26669 -16.079897 29.692706 -7.4460802 -106.48787 
9.8 -2.4521812 -107.32741 10.910687 107.88188 -16.056593 29.424845 -7.4578278 -106.99615 
9.9 -2.4692646 -107.86976 10.846513 107.50096 -16.033863 29.160845 -7.4693545 -107.49703 
10 -2.4860731 -108.40509 10.782681 107.12386 -16.011691 28.900633 -7.4806642 -107.99062 
10.1 -2.502611 -108.93352 10.719191 106.7505 -15.990056 28.644131 -7.4917606 -108.47706 
10.2 -2.5188825 -109.45516 10.656044 106.38081 -15.968944 28.391265 -7.5026472 -108.95648 
10.3 -2.5348917 -109.97012 10.593239 106.01471 -15.948337 28.141965 -7.5133275 -109.42898 
10.4 -2.5506428 -110.47851 10.530776 105.65213 -15.92822 27.896158 -7.5238051 -109.89469 
10.5 -2.5661398 -110.98044 10.468653 105.29302 -15.908578 27.653777 -7.5340835 -110.35372 
10.6 -2.5813869 -111.476 10.406872 104.93729 -15.889395 27.414754 -7.5441661 -110.8062 
10.7 -2.5963883 -111.96532 10.345429 104.58489 -15.870658 27.179022 -7.554056 -111.25223 
10.8 -2.6111477 -112.44847 10.284326 104.23574 -15.852354 26.946518 -7.563757 -111.69193 
10.9 -2.6256693 -112.92558 10.223561 103.8898 -15.834469 26.717179 -7.5732724 -112.12539 
11 -2.6399572 -113.39673 10.163132 103.54699 -15.81699 26.490942 -7.5826049 -112.55274 
11.1 -2.654015 -113.86202 10.10304 103.20725 -15.799906 26.267749 -7.5917584 -112.97406 
11.2 -2.6678467 -114.32155 10.043282 102.87053 -15.783205 26.04754 -7.6007357 -113.38947 
11.3 -2.6814561 -114.7754 9.9838577 102.53677 -15.766875 25.830258 -7.60954 -113.79906 
11.4 -2.6948471 -115.22368 9.9247654 102.20592 -15.750906 25.615846 -7.6181743 -114.20293 
11.5 -2.7080233 -115.66647 9.8660035 101.87791 -15.735287 25.404249 -7.6266418 -114.60119 
11.6 -2.7209884 -116.10385 9.8075712 101.5527 -15.720007 25.195414 -7.6349453 -114.99392 
11.7 -2.7337462 -116.53592 9.7494664 101.23024 -15.705058 24.989289 -7.6430879 -115.38121 
11.8 -2.7463002 -116.96276 9.6916878 100.91046 -15.69043 24.785821 -7.6510721 -115.76317 
11.9 -2.7586538 -117.38445 9.6342339 100.59333 -15.676113 24.584962 -7.6589013 -116.13987 
12 -2.7708107 -117.80108 9.5771031 100.2788 -15.662098 24.386662 -7.6665778 -116.5114 
12.1 -2.7827743 -118.21272 9.5202935 99.966807 -15.648378 24.190873 -7.6741046 -116.87786 
12.2 -2.7945478 -118.61946 9.4638034 99.657316 -15.634944 23.997547 -7.6814843 -117.23932 
12.3 -2.8061348 -119.02136 9.4076312 99.35028 -15.621788 23.80664 -7.6887195 -117.59587 
12.4 -2.8175385 -119.41852 9.3517751 99.045653 -15.608902 23.618107 -7.6958129 -117.94759 
12.5 -2.8287619 -119.811 9.2962333 98.743391 -15.596278 23.431902 -7.702767 -118.29456 
12.6 -2.8398086 -120.19888 9.2410037 98.443453 -15.583911 23.247985 -7.7095841 -118.63685 
12.7 -2.8506814 -120.58222 9.1860849 98.145796 -15.571792 23.066313 -7.7162669 -118.97455 
12.8 -2.8613836 -120.96111 9.1314748 97.850381 -15.559915 22.886845 -7.7228178 -119.30773 
12.9 -2.871918 -121.3356 9.0771716 97.557167 -15.548273 22.70954 -7.7292391 -119.63646 
13 -2.8822878 -121.70577 9.0231733 97.266115 -15.536861 22.53436 -7.735533 -119.96081 
13.1 -2.892496 -122.07169 8.9694776 96.977186 -15.525671 22.361266 -7.7417017 -120.28086 
13.2 -2.9025451 -122.43341 8.9160833 96.690345 -15.514699 22.190222 -7.7477478 -120.59668 
13.3 -2.9124383 -122.79101 8.8629882 96.405554 -15.503938 22.021189 -7.753673 -120.90832 
13.4 -2.9221782 -123.14455 8.81019 96.122777 -15.493382 21.854132 -7.7594797 -121.21587 
13.5 -2.9317675 -123.49409 8.7576872 95.84198 -15.483027 21.689017 -7.7651701 -121.51938 
13.6 -2.941209 -123.83969 8.7054776 95.56313 -15.472868 21.525809 -7.7707461 -121.81892 
13.7 -2.9505053 -124.18141 8.6535592 95.286191 -15.462899 21.364474 -7.7762097 -122.11456 
13.8 -2.9596589 -124.51931 8.6019304 95.011132 -15.453115 21.204978 -7.7815628 -122.40635 
13.9 -2.9686726 -124.85345 8.5505885 94.73792 -15.443511 21.047291 -7.7868074 -122.69435 
14 -2.9775486 -125.18389 8.4995321 94.466526 -15.434084 20.891381 -7.7919455 -122.97863 
14.1 -2.9862895 -125.51068 8.4487592 94.196916 -15.424829 20.737216 -7.7969788 -123.25925 
14.2 -2.9948976 -125.83387 8.3982674 93.929063 -15.41574 20.584766 -7.8019092 -123.53625 
14.3 -3.0033753 -126.15352 8.3480551 93.662937 -15.406815 20.434003 -7.8067385 -123.80971 
14.4 -3.011725 -126.46969 8.2981204 93.398508 -15.398049 20.284897 -7.8114683 -124.07966 
14.5 -3.019949 -126.78242 8.2484611 93.135749 -15.389438 20.137421 -7.8161005 -124.34617 
14.6 -3.0280493 -127.09176 8.1990753 92.874633 -15.380978 19.991545 -7.8206366 -124.60929 
14.7 -3.0360283 -127.39777 8.1499608 92.615132 -15.372665 19.847242 -7.8250782 -124.86908 
14.8 -3.0438882 -127.7005 8.1011161 92.35722 -15.364497 19.704487 -7.829427 -125.12557 
14.9 -3.0516308 -127.99999 8.0525391 92.100871 -15.356469 19.563254 -7.8336846 -125.37883 
15 -3.0592585 -128.29629 8.0042275 91.84606 -15.348579 19.423516 -7.8378524 -125.6289 
15.1 -3.0667732 -128.58945 7.9561799 91.592763 -15.340822 19.285249 -7.8419321 -125.87583 
15.2 -3.0741768 -128.87951 7.9083941 91.340956 -15.333196 19.148429 -7.8459251 -126.11968 
15.3 -3.0814713 -129.16652 7.8608682 91.090613 -15.325697 19.013032 -7.8498328 -126.36047 
15.4 -3.0886587 -129.45052 7.8136004 90.841713 -15.318323 18.879033 -7.8536565 -126.59827 
15.5 -3.0957408 -129.73156 7.7665884 90.594231 -15.311071 18.746411 -7.8573977 -126.83311 
15.6 -3.1027195 -130.00967 7.7198308 90.348148 -15.303937 18.615142 -7.8610578 -127.06504 
15.7 -3.1095966 -130.28491 7.6733256 90.103439 -15.296919 18.485205 -7.8646381 -127.29411 
15.8 -3.1163738 -130.55731 7.6270706 89.860084 -15.290015 18.356578 -7.8681397 -127.52035 
15.9 -3.1230529 -130.82691 7.5810645 89.618062 -15.283221 18.229239 -7.8715642 -127.7438 
16 -3.1296355 -131.09375 7.535305 89.377353 -15.276535 18.103169 -7.8749127 -127.96452 
16.1 -3.1361234 -131.35787 7.4897904 89.137937 -15.269955 17.978346 -7.8781863 -128.18253 
16.2 -3.1425183 -131.61931 7.4445189 88.899792 -15.263478 17.854751 -7.8813862 -128.39788 
16.3 -3.1488216 -131.87811 7.3994888 88.662901 -15.257102 17.732365 -7.8845138 -128.61061 
16.4 -3.155035 -132.1343 7.3546982 88.427245 -15.250825 17.611167 -7.88757 -128.82075 
16.5 -3.1611601 -132.38792 7.3101452 88.192804 -15.244644 17.491139 -7.890556 -129.02834 
16.6 -3.1671983 -132.63901 7.2658281 87.95956 -15.238557 17.372263 -7.8934729 -129.23342 
16.7 -3.1731511 -132.8876 7.2217452 87.727496 -15.232563 17.254521 -7.8963218 -129.43602 
16.8 -3.17902 -133.13372 7.1778946 87.496595 -15.226659 17.137896 -7.8991037 -129.63619 
16.9 -3.1848064 -133.37741 7.1342748 87.266839 -15.220843 17.022368 -7.9018197 -129.83395 
17 -3.1905117 -133.61871 7.0908837 87.03821 -15.215113 16.907923 -7.9044705 -130.02933 
17.1 -3.1961373 -133.85764 7.0477201 86.810694 -15.209467 16.794542 -7.9070577 -130.22238 
17.2 -3.2016846 -134.09425 7.0047818 86.584273 -15.203904 16.68221 -7.9095816 -130.41313 
17.3 -3.2071549 -134.32855 6.9620675 86.358931 -15.198422 16.570911 -7.9120435 -130.6016 
17.4 -3.2125494 -134.56058 6.9195753 86.134655 -15.193018 16.460628 -7.9144443 -130.78783 
17.5 -3.2178694 -134.79037 6.8773037 85.911427 -15.187692 16.351347 -7.9167849 -130.97185 
17.6 -3.2231162 -135.01796 6.8352508 85.689234 -15.182442 16.243052 -7.9190662 -131.15369 
17.7 -3.2282911 -135.24336 6.7934153 85.468059 -15.177265 16.135729 -7.9212889 -131.33338 
17.8 -3.2333951 -135.46662 6.7517954 85.247889 -15.172161 16.029361 -7.9234541 -131.51095 
17.9 -3.2384295 -135.68776 6.7103893 85.02871 -15.167128 15.923936 -7.9255624 -131.68644 
18 -3.2433955 -135.9068 6.6691954 84.810507 -15.162165 15.819439 -7.9276145 -131.85986 
18.1 -3.2482941 -136.12378 6.6282126 84.593268 -15.157269 15.715857 -7.9296116 -132.03125 
18.2 -3.2531266 -136.33872 6.5874391 84.376978 -15.15244 15.613175 -7.9315543 -132.20063 
18.3 -3.2578939 -136.55165 6.5468733 84.161626 -15.147676 15.511381 -7.9334434 -132.36803 
18.4 -3.2625971 -136.7626 6.5065135 83.947198 -15.142976 15.410462 -7.9352796 -132.53348 
18.5 -3.2672373 -136.97159 6.4663585 83.733681 -15.138339 15.310404 -7.9370636 -132.697 
18.6 -3.2718155 -137.17864 6.4264064 83.521063 -15.133763 15.211196 -7.9387961 -132.85863 
18.7 -3.2763328 -137.38379 6.3866561 83.309331 -15.129247 15.112824 -7.9404779 -133.01838 
18.8 -3.28079 -137.58705 6.3471056 83.098474 -15.124789 15.015276 -7.9421095 -133.17628 
18.9 -3.2851883 -137.78846 6.3077539 82.88848 -15.12039 14.918541 -7.9436919 -133.33235 
19 -3.2895285 -137.98803 6.2685995 82.679338 -15.116046 14.822607 -7.9452254 -133.48663 
19.1 -3.2938115 -138.18578 6.2296407 82.471036 -15.111758 14.727463 -7.946711 -133.63912 
19.2 -3.2980383 -138.38175 6.1908761 82.263563 -15.107525 14.633097 -7.9481491 -133.78987 
19.3 -3.3022099 -138.57595 6.1523045 82.056908 -15.103344 14.539497 -7.9495403 -133.93888 
19.4 -3.306327 -138.76841 6.1139244 81.851061 -15.099216 14.446654 -7.9508854 -134.08618 
19.5 -3.3103905 -138.95915 6.0757342 81.646011 -15.095138 14.354556 -7.9521848 -134.23179 
19.6 -3.3144013 -139.14819 6.0377327 81.441748 -15.091111 14.263193 -7.9534391 -134.37574 
19.7 -3.3183602 -139.33555 5.9999182 81.238259 -15.087132 14.172554 -7.9546489 -134.51805 
19.8 -3.3222681 -139.52125 5.9622899 81.035539 -15.083202 14.08263 -7.9558149 -134.65873 
19.9 -3.3261257 -139.70532 5.9248462 80.833575 -15.079319 13.993411 -7.9569375 -134.79782 
20 -3.3299337 -139.88777 5.8875857 80.632358 -15.075482 13.904886 -7.9580173 -134.93532 

!Noise Parameters
!Freq  NFmin(dB)  Mag(GammaOpt)  Ang(GammaOpt)(deg)  rn(normalized)
0.1 0.0084359644 0.99243104 0.59040107 0.25522772
0.2 0.015335458 0.98626577 1.1805587 0.25510728
0.3 0.022189906 0.98018034 1.770773 0.25508444
0.4 0.029020026 0.97415493 2.3610054 0.25507489
0.5 0.03584624 0.96817152 2.9512496 0.25506838
0.6 0.042666686 0.96223209 3.541504 0.2550624
0.7 0.049483904 0.95633479 4.1317696 0.25505611
0.8 0.05629815 0.95047979 4.7220473 0.25504917
0.9 0.063108729 0.94466811 5.3123362 0.2550414
1 0.069915921 0.93889984 5.9026379 0.25503272
1.1 0.076721408 0.93317396 6.4929532 0.25502308
1.2 0.083524266 0.92749158 7.0832826 0.25501245
1.3 0.090325667 0.92185205 7.673627 0.25500081
1.4 0.097122475 0.91625834 8.2639847 0.25498815
1.5 0.1039188 0.91070736 8.8543581 0.25497447
1.6 0.11071061 0.90520269 9.444745 0.25495975
1.7 0.11750196 0.8997413 10.035147 0.25494399
1.8 0.12428888 0.89432673 10.625561 0.25492718
1.9 0.13107449 0.88895665 11.215988 0.25490932
2 0.13785851 0.88363155 11.806427 0.25489041
2.1 0.14463844 0.87835368 12.396875 0.25487045
2.2 0.15141614 0.87312171 12.987331 0.25484943
2.3 0.15819082 0.8679365 13.577793 0.25482736
2.4 0.16496406 0.86279698 14.168259 0.25480422
2.5 0.17173432 0.85770452 14.758725 0.25478003
2.6 0.17850124 0.85265956 15.349187 0.25475478
2.7 0.18526567 0.84766157 15.939643 0.25472847
2.8 0.1920269 0.84271124 16.530089 0.2547011
2.9 0.19878595 0.83780787 17.120518 0.25467266
3 0.2055419 0.8329523 17.71093 0.25464317
3.1 0.2122954 0.82814411 18.301316 0.25461262
3.2 0.21904535 0.82338422 18.891671 0.25458102
3.3 0.22579242 0.81867219 19.481988 0.25454835
3.4 0.23253714 0.81400764 20.072263 0.25451463
3.5 0.23927856 0.8093914 20.662486 0.25447985
3.6 0.24601694 0.80482324 21.252651 0.25444402
3.7 0.25275224 0.80030324 21.842748 0.25440714
3.8 0.25948432 0.79583149 22.432771 0.2543692
3.9 0.26621373 0.79140762 23.02271 0.25433022
4 0.27293972 0.78703213 23.612554 0.25429018
4.1 0.27966242 0.78270494 24.202294 0.2542491
4.2 0.28638227 0.77842567 24.791921 0.25420697
4.3 0.29309863 0.77419476 25.381421 0.2541638
4.4 0.29981159 0.7700121 25.970782 0.25411958
4.5 0.3065219 0.76587707 26.559995 0.25407432
4.6 0.31322792 0.76179077 27.149044 0.25402802
4.7 0.31993124 0.757752 27.737919 0.25398068
4.8 0.32663076 0.75376144 28.326602 0.2539323
4.9 0.33332738 0.74981838 28.915083 0.25388289
5 0.34002015 0.74592336 29.503344 0.25383245
5.1 0.34670977 0.74207578 30.091372 0.25378097
5.2 0.35339571 0.7382759 30.679149 0.25372846
5.3 0.3600783 0.73452337 31.26666 0.25367493
5.4 0.36675697 0.73081839 31.853887 0.25362036
5.5 0.37343226 0.72716051 32.440814 0.25356477
5.6 0.38010386 0.72354972 33.027422 0.25350816
5.7 0.38677186 0.71998586 33.613692 0.25345052
5.8 0.39343602 0.71646889 34.199606 0.25339187
5.9 0.40009688 0.71299828 34.785147 0.2533322
6 0.40675384 0.70957425 35.37029 0.2532715
6.1 0.4134069 0.70619659 35.955016 0.2532098
6.2 0.42005599 0.70286516 36.539305 0.25314708
6.3 0.42670176 0.69957935 37.12314 0.25308334
6.4 0.43334322 0.69633956 37.70649 0.2530186
6.5 0.43998127 0.69314502 38.289341 0.25295285
6.6 0.44661509 0.68999602 38.871666 0.2528861
6.7 0.45324505 0.68689211 39.453444 0.25281833
6.8 0.45987084 0.68383324 40.034648 0.25274957
6.9 0.46649292 0.68081889 40.615259 0.25267981
7 0.47311105 0.67784895 41.195252 0.25260904
7.1 0.47972493 0.67492336 41.774601 0.25253728
7.2 0.48633449 0.67204192 42.353277 0.25246452
7.3 0.49294064 0.66920379 42.931266 0.25239077
7.4 0.49954221 0.66640945 43.508531 0.25231603
7.5 0.50613987 0.6636582 44.085054 0.2522403
7.6 0.51273294 0.66095017 44.660801 0.25216358
7.7 0.5193224 0.6582845 45.235756 0.25208587
7.8 0.52590708 0.6556616 45.809882 0.25200718
7.9 0.53248789 0.65308066 46.383161 0.25192751
8 0.53906437 0.65054162 46.95556 0.25184685
8.1 0.54563632 0.64804434 47.527052 0.25176522
8.2 0.55220397 0.64558836 48.097612 0.25168261
8.3 0.55876761 0.64317322 48.667216 0.25159903
8.4 0.5653266 0.64079898 49.235828 0.25151448
8.5 0.5718811 0.63846521 49.803423 0.25142896
8.6 0.57843139 0.63617148 50.369978 0.25134246
8.7 0.58497698 0.6339177 50.935459 0.251255
8.8 0.59151828 0.63170335 51.499841 0.25116658
8.9 0.59805475 0.62952841 52.063092 0.2510772
9 0.60458693 0.62739223 52.62519 0.25098685
9.1 0.61111466 0.62529458 53.186107 0.25089555
9.2 0.61763771 0.62323525 53.745809 0.25080329
9.3 0.62415604 0.62121393 54.30427 0.25071008
9.4 0.63066972 0.61923024 54.861464 0.25061591
9.5 0.63717884 0.6172838 55.417362 0.2505208
9.6 0.64368327 0.61537433 55.971935 0.25042474
9.7 0.65018296 0.61350151 56.525157 0.25032774
9.8 0.65667793 0.61166499 57.077001 0.25022979
9.9 0.6631682 0.60986441 57.62744 0.25013091
10 0.6696535 0.60809955 58.176442 0.25003108
10.1 0.67613417 0.60636988 58.723985 0.24993032
10.2 0.68260982 0.60467529 59.27004 0.24982863
10.3 0.68908094 0.60301513 59.814584 0.249726
10.4 0.69554703 0.60138931 60.357586 0.24962245
10.5 0.702008 0.59979752 60.899018 0.24951796
10.6 0.70846413 0.59823927 61.438859 0.24941256
10.7 0.71491552 0.59671416 61.977087 0.24930623
10.8 0.72136168 0.59522206 62.513666 0.24919899
10.9 0.72780316 0.59376234 63.048582 0.24909082
11 0.73423944 0.59233491 63.581804 0.24898175
11.1 0.74067063 0.59093934 64.113309 0.24887176
11.2 0.74709687 0.58957521 64.643073 0.24876086
11.3 0.75351778 0.58824233 65.171071 0.24864905
11.4 0.75993389 0.58694011 65.697286 0.24853634
11.5 0.76634483 0.58566837 66.221693 0.24842273
11.6 0.77275024 0.58442687 66.74426 0.24830821
11.7 0.77915094 0.58321492 67.264981 0.2481928
11.8 0.78554631 0.58203245 67.783826 0.2480765
11.9 0.7919363 0.58087907 68.300771 0.2479593
12 0.79832138 0.57975426 68.815806 0.24784121
12.1 0.80470094 0.57865792 69.328899 0.24772224
12.2 0.81107516 0.57758962 69.840038 0.24760238
12.3 0.81744439 0.57654884 70.349204 0.24748164
12.4 0.82380813 0.57553545 70.856375 0.24736002
12.5 0.83016638 0.57454909 71.361532 0.24723753
12.6 0.83651934 0.57358934 71.864663 0.24711416
12.7 0.84286697 0.57265584 72.365746 0.24698992
12.8 0.84920923 0.57174828 72.864768 0.24686481
12.9 0.8555459 0.57086639 73.361708 0.24673883
13 0.86187722 0.57000972 73.856555 0.24661199
13.1 0.86820315 0.56917798 74.349296 0.2464843
13.2 0.87452354 0.56837084 74.839912 0.24635574
13.3 0.88083842 0.56758798 75.328389 0.24622633
13.4 0.88714774 0.56682905 75.814716 0.24609607
13.5 0.89345151 0.56609372 76.298878 0.24596496
13.6 0.89974982 0.56538163 76.780865 0.245833
13.7 0.90604251 0.56469251 77.260664 0.2457002
13.8 0.91232941 0.56402606 77.73826 0.24556655
13.9 0.9186108 0.56338188 78.21365 0.24543207
14 0.92488673 0.56275961 78.686821 0.24529675
14.1 0.93115683 0.56215906 79.157759 0.24516061
14.2 0.93742131 0.56157984 79.62646 0.24502363
14.3 0.94368 0.56102168 80.092912 0.24488582
14.4 0.94993305 0.56048421 80.557108 0.2447472
14.5 0.95618039 0.55996714 81.019041 0.24460775
14.6 0.96242195 0.55947017 81.478704 0.24446748
14.7 0.9686576 0.55899306 81.936087 0.2443264
14.8 0.9748877 0.55853536 82.391191 0.24418451
14.9 0.98111186 0.55809688 82.844004 0.2440418
15 0.9873302 0.55767732 83.294523 0.24389829
15.1 0.99354273 0.55727634 83.742744 0.24375398
15.2 0.99974938 0.55689367 84.188662 0.24360887
15.3 1.0059501 0.55652905 84.632272 0.24346296
15.4 1.012145 0.55618213 85.073575 0.24331626
15.5 1.018334 0.55585266 85.512566 0.24316876
15.6 1.0245169 0.55554039 85.949241 0.24302048
15.7 1.0306942 0.55524493 86.383604 0.24287141
15.8 1.0368653 0.55496614 86.815647 0.24272157
15.9 1.0430305 0.55470364 87.245373 0.24257094
16 1.0491897 0.55445725 87.672778 0.24241953
16.1 1.0553428 0.55422666 88.097864 0.24226736
16.2 1.06149 0.55401158 88.520634 0.24211441
16.3 1.0676311 0.55381177 88.941086 0.2419607
16.4 1.0737663 0.55362695 89.359221 0.24180622
16.5 1.0798952 0.55345691 89.775041 0.24165099
16.6 1.0860181 0.55330138 90.188549 0.24149499
16.7 1.0921349 0.55316011 90.599744 0.24133824
16.8 1.0982456 0.55303281 91.008633 0.24118075
16.9 1.1043502 0.55291926 91.415218 0.2410225
17 1.1104486 0.55281924 91.819501 0.24086351
17.1 1.1165409 0.55273249 92.221487 0.24070378
17.2 1.1226269 0.5526588 92.621178 0.24054331
17.3 1.1287069 0.55259786 93.018583 0.2403821
17.4 1.1347806 0.55254951 93.413702 0.24022017
17.5 1.1408481 0.5525135 93.806542 0.2400575
17.6 1.1469094 0.55248962 94.197107 0.23989411
17.7 1.1529644 0.55247763 94.585406 0.23973
17.8 1.1590131 0.55247734 94.97144 0.23956517
17.9 1.1650556 0.5524885 95.355218 0.23939962
18 1.1710918 0.55251089 95.736752 0.23923336
18.1 1.1771218 0.5525443 96.11604 0.23906639
18.2 1.1831453 0.55258857 96.49309 0.23889872
18.3 1.1891626 0.55264344 96.867914 0.23873034
18.4 1.1951736 0.55270872 97.240516 0.23856127
18.5 1.2011781 0.55278425 97.610904 0.23839149
18.6 1.2071764 0.55286974 97.979091 0.23822103
18.7 1.2131682 0.5529651 98.345076 0.23804987
18.8 1.2191537 0.55307009 98.708876 0.23787803
18.9 1.2251328 0.55318452 99.070495 0.23770551
19 1.2311054 0.55330821 99.42994 0.2375323
19.1 1.2370716 0.55344096 99.787225 0.23735843
19.2 1.2430315 0.55358259 100.14236 0.23718387
19.3 1.2489849 0.55373294 100.49535 0.23700865
19.4 1.2549318 0.55389183 100.8462 0.23683276
19.5 1.2608722 0.5540591 101.19492 0.23665621
19.6 1.2668063 0.55423453 101.54154 0.236479
19.7 1.2727337 0.55441802 101.88605 0.23630114
19.8 1.2786546 0.55460937 102.22846 0.23612262
19.9 1.2845691 0.5548084 102.56879 0.23594345
20 1.2904771 0.55501495 102.90704 0.23576363
